MODEL        1
REMARK vina -5.322
ATOM      1   C1 LIG A   1      -0.023  58.928  77.661  1.00  0.00           C
ATOM      2   O1 LIG A   1      -0.674  59.484  78.549  1.00  0.00           O
ATOM      3   N1 LIG A   1      -0.651  58.542  76.481  1.00  0.00           N
ATOM      4   C2 LIG A   1       1.396  58.638  77.767  1.00  0.00           C
ATOM      5   C3 LIG A   1       2.056  58.018  76.737  1.00  0.00           C
ATOM      6   C4 LIG A   1       1.403  57.627  75.512  1.00  0.00           C
ATOM      7   C5 LIG A   1      -0.005  57.895  75.412  1.00  0.00           C
ATOM      8   C6 LIG A   1      -0.852  57.532  74.208  1.00  0.00           C
ATOM      9   C7 LIG A   1      -0.053  56.702  73.087  1.00  0.00           C
ATOM     10   C8 LIG A   1      -0.040  55.189  73.425  1.00  0.00           C
ATOM     11   C9 LIG A   1       2.961  59.128  72.543  1.00  0.00           C
ATOM     12  C10 LIG A   1       1.496  58.667  72.628  1.00  0.00           C
ATOM     13  C11 LIG A   1       1.419  57.171  72.979  1.00  0.00           C
ATOM     14  C12 LIG A   1       2.187  56.898  74.309  1.00  0.00           C
ATOM     15   N2 LIG A   1       3.613  57.386  74.205  1.00  0.00           N
ATOM     16  C13 LIG A   1       2.199  55.367  74.627  1.00  0.00           C
ATOM     17  C14 LIG A   1       0.990  54.586  74.125  1.00  0.00           C
ATOM     18  C90 LIG A   1       3.717  58.903  73.843  1.00  0.00           C
ATOM     19  C15 LIG A   1       1.033  53.116  74.457  1.00  0.00           C
TER
ENDMDL
MODEL        2
REMARK vina -5.239
ATOM      1   C1 LIG A   1       1.790  60.390  77.524  1.00  0.00           C
ATOM      2   O1 LIG A   1       1.624  61.079  78.534  1.00  0.00           O
ATOM      3   N1 LIG A   1       0.772  60.288  76.580  1.00  0.00           N
ATOM      4   C2 LIG A   1       3.011  59.656  77.244  1.00  0.00           C
ATOM      5   C3 LIG A   1       3.126  58.911  76.098  1.00  0.00           C
ATOM      6   C4 LIG A   1       2.072  58.813  75.119  1.00  0.00           C
ATOM      7   C5 LIG A   1       0.855  59.523  75.402  1.00  0.00           C
ATOM      8   C6 LIG A   1      -0.361  59.514  74.495  1.00  0.00           C
ATOM      9   C7 LIG A   1      -0.212  58.531  73.232  1.00  0.00           C
ATOM     10   C8 LIG A   1      -0.595  57.078  73.616  1.00  0.00           C
ATOM     11   C9 LIG A   1       3.149  59.887  71.776  1.00  0.00           C
ATOM     12  C10 LIG A   1       1.697  59.917  72.283  1.00  0.00           C
ATOM     13  C11 LIG A   1       1.242  58.508  72.703  1.00  0.00           C
ATOM     14  C12 LIG A   1       2.216  57.934  73.778  1.00  0.00           C
ATOM     15   N2 LIG A   1       3.637  57.945  73.263  1.00  0.00           N
ATOM     16  C13 LIG A   1       1.822  56.467  74.143  1.00  0.00           C
ATOM     17  C14 LIG A   1       0.337  56.141  74.028  1.00  0.00           C
ATOM     18  C90 LIG A   1       4.120  59.365  72.824  1.00  0.00           C
ATOM     19  C15 LIG A   1      -0.007  54.720  74.396  1.00  0.00           C
TER
ENDMDL
MODEL        3
REMARK vina -4.652
ATOM      1   C1 LIG A   1      -0.373  58.014  78.169  1.00  0.00           C
ATOM      2   O1 LIG A   1      -1.036  58.554  79.058  1.00  0.00           O
ATOM      3   N1 LIG A   1      -0.984  57.649  76.973  1.00  0.00           N
ATOM      4   C2 LIG A   1       1.045  57.722  78.288  1.00  0.00           C
ATOM      5   C3 LIG A   1       1.720  57.121  77.256  1.00  0.00           C
ATOM      6   C4 LIG A   1       1.084  56.752  76.015  1.00  0.00           C
ATOM      7   C5 LIG A   1      -0.324  57.021  75.901  1.00  0.00           C
ATOM      8   C6 LIG A   1      -1.154  56.680  74.679  1.00  0.00           C
ATOM      9   C7 LIG A   1      -0.339  55.871  73.554  1.00  0.00           C
ATOM     10   C8 LIG A   1      -0.330  54.352  73.865  1.00  0.00           C
ATOM     11   C9 LIG A   1       2.681  58.307  73.096  1.00  0.00           C
ATOM     12  C10 LIG A   1       1.215  57.845  73.153  1.00  0.00           C
ATOM     13  C11 LIG A   1       1.134  56.342  73.476  1.00  0.00           C
ATOM     14  C12 LIG A   1       1.884  56.045  74.811  1.00  0.00           C
ATOM     15   N2 LIG A   1       3.311  56.535  74.735  1.00  0.00           N
ATOM     16  C13 LIG A   1       1.892  54.509  75.101  1.00  0.00           C
ATOM     17  C14 LIG A   1       0.691  53.736  74.569  1.00  0.00           C
ATOM     18  C90 LIG A   1       3.419  58.059  74.402  1.00  0.00           C
ATOM     19  C15 LIG A   1       0.730  52.260  74.874  1.00  0.00           C
TER
ENDMDL
MODEL        4
REMARK vina -4.485
ATOM      1   C1 LIG A   1       1.053  59.580  78.293  1.00  0.00           C
ATOM      2   O1 LIG A   1       0.799  60.258  79.292  1.00  0.00           O
ATOM      3   N1 LIG A   1       0.097  59.438  77.291  1.00  0.00           N
ATOM      4   C2 LIG A   1       2.318  58.898  78.084  1.00  0.00           C
ATOM      5   C3 LIG A   1       2.531  58.163  76.946  1.00  0.00           C
ATOM      6   C4 LIG A   1       1.540  58.024  75.907  1.00  0.00           C
ATOM      7   C5 LIG A   1       0.279  58.682  76.120  1.00  0.00           C
ATOM      8   C6 LIG A   1      -0.880  58.625  75.143  1.00  0.00           C
ATOM      9   C7 LIG A   1      -0.617  57.653  73.890  1.00  0.00           C
ATOM     10   C8 LIG A   1      -0.960  56.184  74.250  1.00  0.00           C
ATOM     11   C9 LIG A   1       2.764  59.153  72.633  1.00  0.00           C
ATOM     12  C10 LIG A   1       1.285  59.120  73.055  1.00  0.00           C
ATOM     13  C11 LIG A   1       0.866  57.692  73.446  1.00  0.00           C
ATOM     14  C12 LIG A   1       1.799  57.156  74.576  1.00  0.00           C
ATOM     15   N2 LIG A   1       3.245  57.228  74.145  1.00  0.00           N
ATOM     16  C13 LIG A   1       1.445  55.672  74.916  1.00  0.00           C
ATOM     17  C14 LIG A   1      -0.015  55.285  74.715  1.00  0.00           C
ATOM     18  C90 LIG A   1       3.693  58.669  73.736  1.00  0.00           C
ATOM     19  C15 LIG A   1      -0.320  53.849  75.060  1.00  0.00           C
TER
ENDMDL
MODEL        5
REMARK vina -4.079
ATOM      1   C1 LIG A   1       1.090  62.477  76.882  1.00  0.00           C
ATOM      2   O1 LIG A   1       0.856  63.260  77.807  1.00  0.00           O
ATOM      3   N1 LIG A   1       0.139  62.278  75.886  1.00  0.00           N
ATOM      4   C2 LIG A   1       2.326  61.726  76.759  1.00  0.00           C
ATOM      5   C3 LIG A   1       2.519  60.874  75.702  1.00  0.00           C
ATOM      6   C4 LIG A   1       1.533  60.676  74.667  1.00  0.00           C
ATOM      7   C5 LIG A   1       0.300  61.403  74.797  1.00  0.00           C
ATOM      8   C6 LIG A   1      -0.850  61.299  73.814  1.00  0.00           C
ATOM      9   C7 LIG A   1      -0.617  60.199  72.666  1.00  0.00           C
ATOM     10   C8 LIG A   1      -1.027  58.788  73.162  1.00  0.00           C
ATOM     11   C9 LIG A   1       2.837  61.426  71.316  1.00  0.00           C
ATOM     12  C10 LIG A   1       1.354  61.497  71.718  1.00  0.00           C
ATOM     13  C11 LIG A   1       0.870  60.133  72.241  1.00  0.00           C
ATOM     14  C12 LIG A   1       1.768  59.671  73.431  1.00  0.00           C
ATOM     15   N2 LIG A   1       3.220  59.639  73.015  1.00  0.00           N
ATOM     16  C13 LIG A   1       1.347  58.244  73.909  1.00  0.00           C
ATOM     17  C14 LIG A   1      -0.127  57.901  73.726  1.00  0.00           C
ATOM     18  C90 LIG A   1       3.733  61.013  72.474  1.00  0.00           C
ATOM     19  C15 LIG A   1      -0.496  56.520  74.206  1.00  0.00           C
TER
ENDMDL
MODEL        6
REMARK vina -3.543
ATOM      1   C1 LIG A   1       0.441  57.868  79.177  1.00  0.00           C
ATOM      2   O1 LIG A   1       0.089  58.502  80.175  1.00  0.00           O
ATOM      3   N1 LIG A   1      -0.445  57.699  78.117  1.00  0.00           N
ATOM      4   C2 LIG A   1       1.754  57.267  79.028  1.00  0.00           C
ATOM      5   C3 LIG A   1       2.077  56.577  77.888  1.00  0.00           C
ATOM      6   C4 LIG A   1       1.159  56.410  76.788  1.00  0.00           C
ATOM      7   C5 LIG A   1      -0.149  56.987  76.940  1.00  0.00           C
ATOM      8   C6 LIG A   1      -1.243  56.890  75.895  1.00  0.00           C
ATOM      9   C7 LIG A   1      -0.850  55.970  74.637  1.00  0.00           C
ATOM     10   C8 LIG A   1      -1.125  54.474  74.939  1.00  0.00           C
ATOM     11   C9 LIG A   1       2.503  57.699  73.622  1.00  0.00           C
ATOM     12  C10 LIG A   1       1.007  57.568  73.953  1.00  0.00           C
ATOM     13  C11 LIG A   1       0.651  56.108  74.284  1.00  0.00           C
ATOM     14  C12 LIG A   1       1.546  55.596  75.454  1.00  0.00           C
ATOM     15   N2 LIG A   1       3.009  55.763  75.112  1.00  0.00           N
ATOM     16  C13 LIG A   1       1.263  54.085  75.737  1.00  0.00           C
ATOM     17  C14 LIG A   1      -0.157  53.620  75.438  1.00  0.00           C
ATOM     18  C90 LIG A   1       3.393  57.239  74.766  1.00  0.00           C
ATOM     19  C15 LIG A   1      -0.395  52.160  75.730  1.00  0.00           C
TER
ENDMDL
MODEL        7
REMARK vina -3.135
ATOM      1   C1 LIG A   1      -0.392  62.187  78.387  1.00  0.00           C
ATOM      2   O1 LIG A   1      -0.613  63.012  79.278  1.00  0.00           O
ATOM      3   N1 LIG A   1      -1.306  62.024  77.351  1.00  0.00           N
ATOM      4   C2 LIG A   1       0.792  61.347  78.346  1.00  0.00           C
ATOM      5   C3 LIG A   1       0.973  60.452  77.323  1.00  0.00           C
ATOM      6   C4 LIG A   1       0.026  60.292  76.247  1.00  0.00           C
ATOM      7   C5 LIG A   1      -1.156  61.108  76.295  1.00  0.00           C
ATOM      8   C6 LIG A   1      -2.263  61.055  75.260  1.00  0.00           C
ATOM      9   C7 LIG A   1      -2.055  59.906  74.155  1.00  0.00           C
ATOM     10   C8 LIG A   1      -2.588  58.544  74.668  1.00  0.00           C
ATOM     11   C9 LIG A   1       1.539  60.846  72.946  1.00  0.00           C
ATOM     12  C10 LIG A   1       0.047  61.033  73.271  1.00  0.00           C
ATOM     13  C11 LIG A   1      -0.558  59.723  73.806  1.00  0.00           C
ATOM     14  C12 LIG A   1       0.247  59.236  75.051  1.00  0.00           C
ATOM     15   N2 LIG A   1       1.711  59.090  74.709  1.00  0.00           N
ATOM     16  C13 LIG A   1      -0.297  57.857  75.546  1.00  0.00           C
ATOM     17  C14 LIG A   1      -1.781  57.613  75.299  1.00  0.00           C
ATOM     18  C90 LIG A   1       2.347  60.407  74.157  1.00  0.00           C
ATOM     19  C15 LIG A   1      -2.271  56.276  75.798  1.00  0.00           C
TER
ENDMDL
MODEL        8
REMARK vina 5.102
ATOM      1   C1 LIG A   1       1.051  62.959  75.608  1.00  0.00           C
ATOM      2   O1 LIG A   1       0.785  63.724  76.539  1.00  0.00           O
ATOM      3   N1 LIG A   1       0.129  62.770  74.582  1.00  0.00           N
ATOM      4   C2 LIG A   1       2.295  62.217  75.508  1.00  0.00           C
ATOM      5   C3 LIG A   1       2.523  61.385  74.442  1.00  0.00           C
ATOM      6   C4 LIG A   1       1.569  61.199  73.376  1.00  0.00           C
ATOM      7   C5 LIG A   1       0.328  61.916  73.483  1.00  0.00           C
ATOM      8   C6 LIG A   1      -0.793  61.821  72.467  1.00  0.00           C
ATOM      9   C7 LIG A   1      -0.520  60.742  71.307  1.00  0.00           C
ATOM     10   C8 LIG A   1      -0.934  59.321  71.767  1.00  0.00           C
ATOM     11   C9 LIG A   1       2.963  62.015  70.077  1.00  0.00           C
ATOM     12  C10 LIG A   1       1.469  62.069  70.438  1.00  0.00           C
ATOM     13  C11 LIG A   1       0.979  60.693  70.923  1.00  0.00           C
ATOM     14  C12 LIG A   1       1.846  60.217  72.130  1.00  0.00           C
ATOM     15   N2 LIG A   1       3.309  60.202  71.756  1.00  0.00           N
ATOM     16  C13 LIG A   1       1.422  58.779  72.572  1.00  0.00           C
ATOM     17  C14 LIG A   1      -0.044  58.429  72.341  1.00  0.00           C
ATOM     18  C90 LIG A   1       3.828  61.588  71.253  1.00  0.00           C
ATOM     19  C15 LIG A   1      -0.417  57.038  72.786  1.00  0.00           C
TER
ENDMDL
